<?xml version="1.0" encoding="UTF-8" standalone="no" ?>
<VTKFile byte_order="LittleEndian" type="UnstructuredGrid" version="0.1">
  <UnstructuredGrid>
    <Piece NumberOfCells="0" NumberOfPoints="32000">
      <PointData>
        <DataArray Name="velocities" NumberOfComponents="3" format="ascii" type="Float32">
        -1.10813 -0.32575 0.29293
        1.13724 0.138083 -0.222284
        0.666763 0.391088 -0.876208
        -0.129257 -0.337589 0.135806
        0.227468 0.0489802 -0.606445
        0.566077 0.918276 -1.82435
        0.385395 2.16568 1.37612
        0.427082 -0.47617 -1.03324
        -1.10398 -0.186017 0.338368
        0.880807 -1.16323 -2.32538
        0.492081 -0.761025 -0.239389
        -2.34849 0.328948 -0.51346
        1.03478 1.41807 0.622275
        1.78273 -1.00561 -1.81306
        0.605432 1.43146 2.45977
        0.488105 -0.202877 2.35922
        0.968407 -0.531441 -1.19402
        0.894357 -0.218842 -0.473514
        1.19807 -1.85557 -0.985299
        0.0315216 -1.83639 0.680865
        0.00375496 0.0103064 1.08145
        -0.910799 0.453328 -2.19074
        0.409355 1.24123 -0.406875
        -0.142844 -1.21754 -0.486478
        -0.464062 -0.785391 1.37601
        -0.525403 0.921525 0.556785
        -0.363414 0.711123 -2.06764
        0.28726 0.274675 -1.05881
        0.34255 1.98709 0.884417
        -0.711858 -0.0226925 -1.12407
        1.16873 0.169971 0.879391
        1.5119 -1.15122 -3.32316
        -1.16921 -0.964848 1.95107
        -0.222184 1.12651 0.0493066
        1.24934 -1.13944 -0.222053
        0.548847 2.10893 0.0336677
        0.947581 -0.745108 -1.14925
        0.0389468 -1.06188 -0.859261
        3.24829 0.587202 0.0633619
        1.43807 -2.11532 -1.16314
        0.223019 0.245844 0.457092
        -0.527864 -1.30163 0.568766
        -0.532189 -0.0266539 0.0406875
        1.02285 -0.998735 0.962731
        0.73359 -0.704975 -1.1236
        0.656869 -0.905215 0.0369487
        0.312148 -1.50257 0.119473
        -1.80227 0.683327 -0.0106687
        -1.0045 0.537034 0.0525505
        1.46659 -1.06446 -0.624419
        0.0427604 0.124605 0.344848
        -0.859989 1.20417 -0.617402
        0.384065 1.61245 2.42632
        0.756431 -1.00474 -1.14911
        0.848196 -0.433544 0.376015
        0.18003 -1.78816 0.625491
        -1.00349 -1.64524 -0.346934
        -0.73542 1.42629 -0.966369
        -1.67026 0.103933 -1.83649
        0.377768 1.66444 0.726176
        -0.331264 -0.722035 0.922993
        -2.02764 0.510818 -1.08699
        -0.58931 0.502647 -1.15073
        0.446452 -1.12187 1.52095
        -1.25254 0.697955 0.858894
        1.63906 0.585065 1.01143
        -0.627959 -0.771888 -0.308094
        -0.105325 1.08992 -0.242573
        2.716 -0.787179 -2.75553
        0.72318 -0.0795619 0.376642
        0.576982 0.0204068 -2.19891
        0.375573 1.40734 0.0687451
        -0.6168 -0.357358 0.0380272
        -0.380662 0.953671 0.24329
        -0.705097 -0.986111 0.315165
        1.63379 0.0388022 -0.344379
        0.848011 1.30087 2.62821
        1.09588 -0.502589 2.84846
        -0.103706 -0.288529 -0.360195
        0.937088 2.88823 0.408751
        0.788418 0.571812 -0.595822
        0.107149 -0.18643 1.75954
        -0.34374 1.98733 1.05996
        -1.29918 -0.719928 0.00444701
        -1.34429 0.192833 1.15325
        0.672412 -2.61001 0.448953
        1.08996 0.161052 -1.35544
        1.57609 0.224239 0.182929
        2.00578 -0.141513 -1.87061
        -0.128002 0.825096 0.352761
        -1.46495 0.59102 -2.98803
        -0.54547 1.49018 -1.53384
        -3.00854 -2.00922 -0.408512
        1.02023 1.55209 -1.15259
        -0.568833 -0.902036 -0.359132
        1.17054 0.177819 -0.833378
        0.334794 -0.124127 -1.18419
        0.772226 0.412502 -0.590235
        -1.15735 1.62051 0.0322671
        0.2448 0.209065 -0.466156
        -3.26431 -1.45587 -1.70252
        0.306912 -1.36489 -1.21275
        2.2504 -0.902718 0.625999
        0.00130632 -0.53926 0.906298
        -0.645928 0.662163 -0.544902
        -1.15908 1.95949 -1.21104
        0.691627 -0.999957 -1.0176
        -2.0007 -1.12997 -1.69332
        -0.354392 0.945633 -1.01052
        1.0377 0.394077 1.31916
        0.129434 0.036152 -0.32499
        -1.97403 -0.93855 0.382725
        1.11759 0.995292 0.813892
        0.0459061 -0.770926 1.1247
        0.061844 -0.912291 -0.898207
        2.41767 -0.858704 -0.241311
        0.365199 -1.10974 -1.09267
        0.234638 0.690773 1.01305
        0.429455 0.655403 -1.08744
        1.55347 0.589237 -1.17941
        -0.153516 0.984787 0.34869
        0.153303 0.564319 1.44044
        0.847317 -1.21602 -1.12129
        -0.148976 0.49005 -0.280797
        1.85114 0.285615 -0.781589
        -1.5271 -1.04929 0.0595045
        -1.23469 -0.790947 0.222569
        1.30741 0.476857 -0.828258
        1.36504 1.36213 1.67896
        -1.12098 2.5661 -0.08277
        1.30353 0.0659959 1.23091
        -0.296201 -2.52346 -1.60095
        2.3678 1.19564 -0.657999
        0.0793578 0.854174 -0.143031
        -0.103424 -1.59616 1.0959
        0.490555 0.260896 0.798565
        1.36727 -2.1378 0.958947
        -1.55618 -1.31556 -2.68628
        0.451917 -1.03854 0.176318
        -1.68794 -1.83996 0.633619
        -1.57292 0.416546 -1.87992
        1.08531 -0.101452 -1.18839
        0.309034 0.00899482 0.248668
        -0.574626 -1.11157 0.569755
        0.815766 0.24049 -0.638546
        1.70342 -1.27863 0.553625
        -0.238171 0.374584 1.13449
        -1.06283 1.30212 -1.10196
        -2.40286 1.23136 2.70547
        -0.725585 1.50802 0.498809
        -1.96456 -0.324236 -0.0101013
        1.77206 3.1687 1.00167
        -1.47665 -1.15913 -0.0821602
        3.23167 0.866037 -0.113851
        1.33301 -0.272913 0.355354
        1.02821 1.98788 -0.591447
        0.0598581 2.10763 -0.0283778
        -0.773422 -1.24289 1.2416
        1.30255 1.56688 0.0828026
        1.54967 0.52345 0.851384
        0.790428 -0.997319 -2.35776
        -0.884537 0.85515 -1.29598
        -2.05925 -0.233878 -0.674533
        -1.31272 2.06886 0.254334
        0.311956 1.60703 0.349623
        2.32106 1.18101 0.846395
        0.152317 2.12744 -0.134188
        0.067538 1.22891 0.202044
        -2.11411 0.370449 -0.690504
        1.97899 -1.19139 -0.838619
        0.592041 0.542067 0.30686
        0.805484 -1.36035 0.147248
        0.662095 -0.285781 -1.90427
        1.40711 0.377871 -2.46417
        -0.316794 -0.250238 0.798039
        1.38529 -1.509 -0.0027206
        -0.796857 1.91593 0.787489
        -0.287912 -0.0981538 -1.59831
        -2.0387 0.203543 0.378591
        -1.40205 -0.221089 -1.75285
        -1.14386 1.93639 0.116049
        -0.235651 0.127515 0.608955
        0.792692 2.12813 -0.400844
        0.12926 -0.594902 -0.851147
        0.157571 -0.310378 0.866525
        0.497869 0.469569 -1.03257
        0.819197 -0.919429 1.50902
        -0.790007 1.70292 0.576483
        -0.0283566 1.02721 -0.0861246
        0.271754 0.944988 -1.40003
        0.849843 0.802542 0.378552
        -2.51677 0.0134157 -1.44762
        -0.425345 -0.113138 -0.902463
        0.00393861 -0.401453 0.292881
        0.213059 0.143476 1.00116
        0.422315 -0.374158 0.404838
        2.73933 -0.0110495 0.615092
        1.00804 0.672759 1.03008
        -0.701436 -0.352694 -0.309044
        -0.11945 -0.205207 1.69332
        -0.789194 0.0327132 -0.623454
        -0.0647065 -3.11722 0.542634
        1.78445 0.0635132 -2.65075
        0.418285 -1.03664 0.993323
        -0.821807 0.636293 1.13895
        -0.964746 1.97958 -1.05033
        -0.393762 1.33364 0.542622
        1.07742 2.33797 1.1087
        1.93157 -1.07604 -1.15528
        2.30369 -0.626806 -1.01608
        0.765447 -1.4366 -0.588016
        -0.00423223 -1.2054 0.194642
        0.828022 1.7583 -0.56286
        -1.2121 0.897865 1.16646
        0.00353285 0.422012 1.65766
        -1.74036 0.127698 -1.56231
        0.126989 -1.22627 1.34205
        0.0889089 2.42386 0.82602
        0.571293 0.860945 -0.923138
        -0.73968 -0.955084 0.210026
        0.85041 0.87289 0.212531
        1.51172 -0.324646 -0.12429
        -1.49229 -0.500501 0.373996
        -0.308342 1.61577 0.689938
        1.99303 1.07981 1.13129
        -0.98575 -0.0641636 -0.448881
        1.87865 1.70795 0.507303
        -0.574094 0.186591 -0.375916
        -0.538781 -3.72537 0.447232
        -0.542029 -0.129032 0.628017
        -0.288049 0.626929 2.85549
        -0.721011 1.18744 -1.08651
        1.33801 0.857994 -0.234318
        1.40492 -0.775978 0.845231
        -2.40466 1.3225 1.64364
        -0.181467 1.80362 -0.32484
        1.04133 -2.39525 -0.63699
        2.51831 1.92953 -0.0700412
        0.673608 0.549893 -0.021393
        -2.86063 -0.182813 1.58592
        -1.53244 -1.24862 -1.57303
        -0.941096 0.663721 0.211526
        -0.710201 -0.0679098 1.82745
        0.699982 -0.062355 -0.194819
        1.93403 0.113832 -0.317196
        0.412563 -0.645568 0.0894427
        2.81396 1.39069 -0.713789
        -1.09981 -0.466135 0.908283
        0.316325 -0.0547606 0.93909
        1.17027 1.90723 -0.19806
        1.35612 -1.94732 1.95438
        -1.11963 2.82995 1.48237
        0.0603799 0.438649 0.74716
        -0.659503 -0.566609 -1.76035
        0.472572 -1.73989 0.595611
        0.741583 3.48512 -0.105905
        -0.719174 0.163799 -0.779316
        1.20065 0.443528 1.51127
        0.393313 -0.661823 -1.40735
        0.830537 -0.257826 -0.723649
        1.65699 -1.49511 0.267355
        0.574326 0.917377 0.852096
        -0.737245 -1.901 0.925989
        0.9372 1.1842 -0.855462
        0.173588 -0.366686 0.241562
        -0.765748 -1.088 0.497026
        1.51424 0.390203 0.702831
        -1.15506 -0.668644 -1.97172
        -0.281219 0.13799 1.6569
        -2.21228 -0.182692 -1.16193
        -0.183283 -2.14863 -0.790508
        -0.85338 -0.472153 -1.24388
        -1.70217 0.32914 1.88436
        -0.756376 -1.63105 0.410452
        -1.26938 2.16253 1.17193
        1.06372 1.26033 -0.217045
        0.0582526 1.39282 0.837866
        0.82203 1.08115 0.158531
        1.25173 -0.862709 -0.857428
        0.49049 0.574626 1.12929
        1.08243 0.673179 -1.1797
        -0.269424 -0.625898 0.115958
        0.28531 1.53602 -0.310647
        -2.31545 -0.369939 0.219862
        1.42583 0.642021 1.57211
        -0.349913 0.408008 -2.19497
        0.71691 1.04548 -0.0992784
        -0.903769 1.01287 1.14279
        -1.88455 -0.763423 -1.99081
        -0.724248 0.484508 -0.663216
        -0.132742 1.56911 1.40659
        -0.821681 0.654382 0.321853
        -0.147322 2.26931 1.60566
        0.915178 2.66116 -1.88013
        -1.03728 -0.245524 -0.319116
        -0.327932 -1.64571 -1.63296
        -0.552706 0.724071 2.19402
        -0.514704 -1.69534 0.233796
        -0.180108 0.80117 0.38863
        0.605946 0.236785 -0.178178
        -1.65646 1.4919 -0.131919
        0.484014 -0.9532 0.908593
        -0.937398 -0.850639 -0.589429
        0.0701836 0.11544 -1.7951
        -1.31486 0.44055 -0.162379
        -0.368203 -1.12931 0.5603
        -0.934068 -0.318689 -0.239111
        0.298219 -0.794542 -0.0377032
        -0.496424 -2.00546 -0.856881
        3.45232 3.29967 -0.313036
        0.183907 -0.458268 0.881598
        2.12767 -0.315103 -0.24998
        1.06258 0.338434 -0.263652
        1.7226 1.62513 -0.0358007
        0.248051 -0.482111 1.20639
        1.63 2.83531 0.343985
        -2.30431 1.06583 0.853401
        -0.641385 1.52852 0.359814
        0.0535288 -0.972525 1.14258
        0.297407 -0.882474 1.93628
        1.36535 -1.60026 -0.643309
        0.501173 1.04499 -1.76392
        -1.01643 -1.71773 -0.0435948
        1.17303 1.18668 -0.837326
        0.222401 3.30286 -0.826537
        0.00994338 2.03069 -0.62862
        0.568187 0.810157 0.567231
        0.181721 0.0613773 -0.145092
        -1.44664 -1.63288 -0.859766
        0.651228 1.13538 0.872369
        -2.20472 0.0822659 0.134678
        -1.2044 1.58534 1.49639
        0.648904 -1.09089 0.0908328
        -1.03778 -0.661067 -1.89988
        -1.98092 2.07451 0.563391
        1.77963 0.180262 -0.482523
        0.778792 1.48817 -0.153906
        1.71086 -0.48904 -0.926895
        -0.806996 -0.0921628 -2.45836
        -0.552321 0.54059 -1.16136
        -0.531338 -0.114277 -0.626335
        0.0195237 -0.22311 1.04548
        -2.19617 0.326962 1.29432
        -0.821804 0.539778 -0.373163
        -0.376447 0.0691487 -0.163374
        -1.7127 1.5966 -0.455657
        -0.108875 0.518072 -0.746888
        -1.02656 1.72421 -0.0469092
        -1.52308 1.59595 -0.234643
        0.728392 0.0265531 0.339895
        0.104048 0.36129 -0.176459
        -1.0708 1.20176 0.282714
        0.118251 1.63062 -1.13416
        1.02529 -1.61931 -1.2194
        -2.89157 -0.412895 -1.4616
        -1.00989 -1.7962 -2.12701
        0.199021 1.60367 -0.120747
        -0.305655 0.432718 -0.277187
        0.0861281 1.06408 -1.55248
        1.09506 0.667867 -1.823
        1.35172 0.11704 0.282592
        1.43083 0.169049 0.353676
        1.45903 1.59566 -0.654432
        -0.772809 0.714586 1.12973
        -1.17134 -0.027199 -0.531986
        -0.700094 0.641219 1.06117
        0.143555 -1.45599 1.3606
        0.497365 1.17893 -1.52178
        0.675861 1.34808 -1.24581
        2.15965 0.0774328 -0.589383
        -0.851933 0.357674 -1.12586
        0.368569 1.25046 -0.367845
        -0.945564 1.84613 -2.00701
        0.211727 2.1147 -0.999136
        -0.765136 -1.29344 -2.09694
        -0.646737 0.28494 0.156999
        -2.77747 0.597884 0.0121433
        -0.69407 -0.348804 0.868259
        1.93107 -0.603508 -0.118143
        -2.20587 2.1585 -0.948331
        -1.12747 0.820237 0.376693
        -0.459185 -2.31837 -0.846964
        -0.405079 0.430056 -1.58922
        0.470589 1.17227 -1.18154
        0.887375 -2.22796 -0.65334
        -0.420644 2.01302 2.34034
        0.180233 2.11575 -1.28599
        -0.256761 -1.10312 -0.466067
        -1.35578 1.33721 0.00643734
        0.703745 0.0899995 -1.07565
        0.995676 -0.469606 0.726396
        -0.208893 -2.37267 0.130811
        0.72571 0.194058 1.99426
        -1.12759 0.462096 -0.269977
        0.314135 -1.63929 -1.38832
        -0.416922 -0.858856 1.33124
        -0.340907 -0.0217674 -0.794955
        -1.55178 -1.81387 -1.2817
        -0.491693 0.549314 1.10218
        -1.94131 -1.33028 -0.30256
        1.60802 1.64664 0.0453513
        -0.288173 -0.858516 0.180555
        2.78728 -0.942228 2.36777
        -0.359453 -0.688322 -0.984364
        -1.32874 0.179435 0.141278
        0.358383 0.435307 1.19161
        -0.610553 -0.11963 0.0424144
        -1.47258 0.657857 -1.0421
        -0.183478 0.613096 -0.717137
        -0.802737 1.80803 1.0748
        0.386633 -0.422796 1.72021
        0.530529 1.05486 -0.258036
        0.847071 -0.800921 1.41699
        0.0701737 2.19498 -0.297404
        0.57261 0.847311 0.114492
        0.165096 -1.38759 1.28183
        0.954955 -1.28187 -1.39805
        -0.801104 -1.71611 -0.136053
        0.829209 -1.43487 -0.294963
        -2.14882 -1.3967 1.20614
        0.161143 -0.357622 0.856948
        0.356199 0.460808 -1.11569
        -1.61492 0.294337 1.30681
        2.84318 0.204093 -1.18963
        -2.10124 1.7919 -2.31813
        0.261776 0.62834 0.168451
        0.839704 -0.310499 -0.262815
        -0.617962 -0.839694 -0.103337
        -0.466463 -0.649792 -0.201737
        -0.84858 1.07566 -0.737474
        -1.72902 0.0947938 0.712867
        0.591544 -1.56735 -0.0928811
        1.82797 -0.340926 1.5415
        0.214824 0.308304 0.166051
        -0.713387 0.647738 -0.183151
        2.42229 -1.17242 1.91838
        0.266738 -0.157713 0.0803939
        -1.03793 -0.746861 1.10778
        0.495631 -0.296212 -1.07738
        -0.601952 -0.525474 1.18733
        2.76796 -0.704086 1.5111
        -0.041847 -0.0786926 0.491867
        1.88149 -1.45572 -0.0500575
        -0.182661 0.0592259 -0.136966
        0.367673 0.353898 -0.918883
        -0.949327 0.799378 0.604489
        -0.0645264 1.38584 0.120902
        -1.71951 0.296409 -0.125347
        -1.00552 -0.156128 -0.0321173
        -1.02082 1.23083 -0.539394
        1.29554 0.92334 -0.661766
        0.782695 -0.05568 1.601
        0.88165 -0.638073 -0.351326
        1.252 -0.525839 -1.23138
        0.993262 1.05312 -0.0355171
        -0.903332 0.392524 -0.281093
        -0.911619 0.554435 0.802722
        0.249233 1.04295 -0.561533
        -1.29859 1.42316 -0.261848
        1.1208 1.22464 -2.45876
        -0.703794 -1.893 -0.270509
        0.567444 -0.635814 0.134984
        2.51827 0.751992 1.68786
        -1.72258 -0.586318 1.15814
        -0.220142 -0.796082 0.10984
        -0.951558 0.399789 -0.384813
        -0.848224 1.64174 0.42797
        1.32561 -2.21926 -0.703963
        -0.900416 -3.35882 -1.90462
        -0.392236 1.41624 0.622522
        -0.848162 -0.417977 -3.17067
        0.105179 -0.153963 0.782918
        0.687684 -2.81399 0.0766715
        -0.0496835 0.201756 -1.02577
        -0.522627 0.645722 1.37771
        -0.0536986 0.0207853 0.0961012
        0.0582297 -1.75814 0.323858
        1.80815 -0.413574 0.40991
        -0.169028 0.908297 -1.68556
        -0.175742 -0.7519 0.0593156
        -1.10962 -0.675009 -0.00631433
        1.68037 0.666349 -0.594515
        -0.695456 0.474982 0.947518
        0.955441 -0.146819 -1.84901
        -0.330014 -0.0962313 2.5371
        -0.502285 -0.194504 -1.82848
        0.434275 -0.388636 0.360254
        0.390717 0.558079 -0.771399
        0.0994891 0.853011 -0.738812
        -0.65036 0.640346 1.25309
        1.28295 -0.400273 0.88565
        -0.887667 -0.429794 0.0119884
        0.322536 1.12844 -0.597874
        -0.878169 0.754822 -0.2431
        -1.41817 1.87257 0.166171
        0.470689 1.7577 2.21159
        -0.530765 1.11545 0.720563
        -0.225109 1.0817 -1.15936
        -0.623733 1.84877 -0.621102
        0.128655 -0.11972 0.715251
        -0.659463 0.0999061 -0.654525
        0.600316 -0.665252 1.13279
        1.50743 0.770301 1.2775
        -0.743775 -0.237999 0.849713
        0.0673106 0.389598 0.870518
        1.62639 0.578386 -2.10749
        0.368251 0.118968 -1.12251
        -0.0545357 0.534989 -2.26223
        0.1776 -2.43805 -0.607085
        -0.337382 -1.12026 -0.397383
        0.691608 -0.277253 1.10099
        1.08805 0.152249 0.71702
        1.02323 0.599002 1.03586
        1.5887 -1.17405 0.57225
        -0.393064 0.932052 -0.416784
        -0.0581147 0.282244 1.30221
        -0.127076 0.373394 1.72662
        -1.57483 0.356572 0.0324865
        -0.653656 1.67981 -1.32418
        1.27678 0.336352 -0.798364
        -1.26251 0.300645 -0.205124
        0.887549 0.999953 1.55549
        -0.254052 0.873944 0.882006
        0.468436 -0.874691 0.827319
        -0.148754 -1.21041 0.0793652
        -1.26411 -0.261838 1.65551
        -0.678054 -0.48787 0.692403
        -0.467589 -0.397925 -1.42113
        -1.76346 -0.269263 0.844781
        1.05476 -1.06286 1.2361
        -0.944502 -1.18353 1.30463
        0.698968 -0.372733 -0.0741094
        -2.21454 -0.922296 1.71566
        -0.116361 -0.712031 -0.252365
        -1.09575 -0.491909 1.16346
        0.917296 -0.710707 2.00498
        0.50731 -0.0195485 0.142678
        -1.45337 0.416112 -0.296987
        -0.471331 -0.575727 1.88957
        0.228965 -0.892744 0.0889589
        -1.42038 0.656853 -0.575242
        0.674486 -0.41462 1.59897
        0.938807 1.08356 0.399823
        0.971049 2.25117 -1.21084
        -0.967576 1.09216 -0.94757
        -0.176076 -0.0352049 0.601858
        0.182312 -0.0926538 -0.847089
        -1.1801 1.43171 -0.724542
        1.58402 -1.4685 -1.2764
        0.0642997 -0.682194 0.333155
        -0.606269 0.829501 0.945719
        -0.133396 -0.0960959 -0.818433
        0.171206 -0.398003 0.182803
        0.118082 0.981102 2.12285
        1.44737 -0.000426708 -0.280275
        -0.194751 -0.0330304 -0.222435
        -0.846651 1.95799 -1.0725
        0.107918 -0.270483 -1.37148
        1.35794 1.66508 -0.919021
        0.169851 0.927681 1.56948
        0.895667 -0.495611 0.242266
        -0.602398 -0.511812 0.907253
        -0.761288 -0.920219 1.1263
        0.109699 0.282712 1.59923
        -0.528276 -1.20157 -0.0483704
        -0.280695 0.214178 -1.5836
        -2.3519 -0.520267 0.719969
        0.429595 -1.40313 1.10738
        -0.225368 -0.369585 1.66848
        -0.883188 -0.0373955 0.307249
        0.513785 0.355953 -0.618199
        -1.82691 0.625009 2.00586
        0.115995 0.860672 -0.227964
        -0.262645 0.632763 -0.0852883
        -0.447494 0.760955 -0.35621
        -1.96632 -1.49569 0.301711
        -0.837056 0.390024 -0.476552
        -2.01407 0.876051 0.803159
        0.273965 -0.300122 1.23009
        0.749538 -0.357913 -1.36258
        0.0642768 -1.5312 -0.126406
        0.422669 0.0278042 -0.336022
        -0.0456492 0.424376 -0.327716
        -1.77839 -2.07632 1.09478
        -0.480645 -0.402749 -2.69323
        0.331415 -1.51461 0.636293
        -0.535155 1.86794 -0.475802
        -0.135846 -0.0846981 -0.506076
        -1.32715 -0.0583642 -1.02177
        -0.235872 -0.968371 1.85047
        -0.64685 1.30732 0.948491
        1.7436 1.56463 -0.43171
        0.0191262 -0.667613 -0.446032
        -0.619507 -0.882124 1.32616
        -0.324392 1.30345 0.168279
        0.567789 2.16346 0.0738543
        -0.81462 -0.0958647 1.34066
        -0.743724 -2.52893 0.63029
        0.432061 -0.408409 -0.316612
        0.851334 0.388693 0.823602
        0.768093 0.840682 1.53845
        1.38234 2.10268 0.114073
        0.912879 -0.74438 0.377328
        0.675391 0.860745 -0.892986
        1.85033 1.82682 0.644366
        0.142409 -0.868232 0.459092
        0.491037 -0.890097 -0.739183
        -1.23355 -0.116126 0.1109
        0.386174 2.05062 -0.294292
        0.581416 0.0290557 -1.26544
        1.63996 0.850554 -1.26696
        -0.326627 -0.280827 -1.87577
        -0.18312 0.80594 1.40227
        -1.65481 -1.48086 -0.310481
        1.37418 -0.846564 0.696741
        -0.310737 1.10693 -0.984205
        -0.487926 -1.16747 1.22526
        -0.485589 0.30291 1.19038
        1.5984 0.157777 -0.565617
        1.31534 -0.802765 0.486208
        -0.21468 1.43541 1.08828
        -1.21819 1.66457 0.89896
        -0.36595 -0.629893 2.3849
        -0.0851873 -0.962876 -1.03124
        -0.632446 -1.29361 -0.371742
        0.439091 -1.31074 -1.25444
        -1.12579 0.923063 2.51617
        0.158519 0.351357 -0.4332
        1.81325 0.676591 -0.0990143
        1.44137 1.7587 0.938918
        -0.255089 -0.132961 -1.35331
        0.658903 -0.807203 -1.64201
        -0.082524 0.554595 -1.01397
        1.49217 0.780126 0.213355
        -1.30603 -0.933797 0.0163082
        0.87335 -0.126267 -1.14385
        1.10807 0.683669 -0.673832
        0.867613 -2.65075 -0.272139
        1.02523 0.148687 0.283314
        -0.736357 -1.60613 0.168986
        -1.33052 -1.29112 -0.496028
        -1.12332 -1.1653 -1.20932
        2.36827 0.613587 -0.54854
        2.29923 -0.148598 -1.74997
        -0.458285 0.689518 0.234941
        0.282458 2.07415 -1.58274
        0.294739 1.35291 0.793145
        0.151296 1.37749 2.94876
        0.521645 -0.934134 -0.873924
        2.16959 -0.277094 0.160534
        1.32223 0.627412 0.744542
        -0.846425 -0.280801 -0.871457
        -3.46991 -0.233618 1.58881
        -1.65507 -2.13382 1.49838
        -0.238171 1.34584 0.218486
        0.363081 1.01867 -1.25403
        -1.42148 0.404297 0.275254
        0.939613 0.466987 0.0991343
        -0.525708 0.887127 -0.480356
        1.54521 0.619461 0.350041
        2.06767 -1.50457 -0.215543
        -1.05293 0.260229 -0.277004
        -0.413758 -0.620782 -1.85801
        0.778 0.458203 -1.49829
        1.02353 1.60226 -0.559703
        0.583097 0.232711 0.75
        0.340962 0.644477 -0.00632607
        1.2429 -0.727817 2.11543
        -0.767806 0.625857 0.817561
        -1.74299 1.18754 0.72246
        -0.237591 -0.290467 -0.94442
        0.144655 -0.227135 1.10941
        1.85796 -1.17669 -0.287302
        -0.661909 -0.144881 0.882324
        0.514566 1.26565 1.6406
        -0.0267321 2.50675 0.562256
        0.149364 0.290492 0.263091
        -0.765361 -0.13659 -1.33122
        0.279335 -1.1809 -0.140477
        -0.92845 0.85374 1.94287
        1.83699 2.06362 -0.441743
        2.63934 0.622488 -1.54788
        0.223902 1.38514 0.71386
        0.239649 -0.410014 -0.345039
        -1.11286 2.99932 -1.0721
        0.649402 0.924932 -0.928197
        2.31026 -2.4892 0.19805
        -0.764073 -1.08154 1.97119
        -0.361046 1.18003 -0.320496
        0.380816 -0.623619 0.0566534
        1.18531 1.05741 1.40459
        -1.01848 -0.103753 3.09442
        -0.96113 -0.0822841 3.41548
        0.492428 -1.32637 0.164215
        -0.847189 -0.431902 -0.647594
        -0.137032 0.0887731 0.159495
        -0.0591884 -0.241191 -0.276295
        -0.234474 -0.221842 -0.060587
        1.27327 -0.868383 -1.47008
        0.28425 -0.463598 -1.72686
        1.52082 -0.56025 0.739148
        0.598279 0.154479 -0.694618
        -0.134447 -0.732145 0.804353
        -0.30086 0.216421 -0.771724
        0.637448 -0.297345 1.23497
        2.1004 0.730131 -0.190129
        -0.356919 -1.58585 0.331192
        -0.676017 -0.098755 1.45919
        3.25279 -0.664895 0.749439
        1.39015 0.936828 -0.0949895
        1.07221 -0.57485 0.359504
        -0.00500483 0.578382 0.678674
        1.25388 1.21823 0.207739
        -1.42274 0.189678 -1.17847
        1.06141 0.546727 2.87811
        0.429325 -0.779385 0.514629
        -0.715484 0.63776 1.9513
        -0.27617 -1.07055 -0.0719733
        1.62399 -0.417406 -1.14883
        1.69427 -0.603692 -0.64633
        1.38523 -0.308628 -0.303207
        1.38575 -1.25865 -0.0698722
        0.0510195 1.36619 -1.04842
        2.18879 -1.72133 0.0515269
        0.0158648 0.350573 -0.973071
        1.09928 -0.0715195 -0.602425
        1.25942 -3.06771 -0.130797
        -1.90117 -0.36787 -1.47554
        0.894411 0.340717 0.96796
        -0.193369 0.41874 0.448258
        2.81 2.16324 0.344156
        0.457355 0.842605 0.866731
        -0.643874 0.0295145 1.75072
        -1.91705 0.904881 1.35496
        -0.916182 1.63292 0.32976
        -0.363629 -0.74213 1.15825
        1.20907 -0.784626 0.24304
        1.02251 0.582072 -0.240119
        0.686286 0.120233 -0.308291
        0.944545 0.150336 -1.53423
        0.198792 2.22547 -0.286156
        -0.110785 0.0837963 0.158988
        0.492271 0.603203 -0.922827
        0.996461 1.31233 -0.421651
        -0.771731 -2.19822 -0.24926
        0.262373 -1.57293 -1.61352
        -1.47649 -0.423043 1.67958
        1.74168 0.649486 -1.1938
        0.130092 -0.54773 -0.867234
        0.334347 -0.655565 0.357131
        2.03497 1.20023 -1.84126
        1.91473 -1.59739 1.91977
        -0.297163 0.13123 -0.548074
        -1.09544 0.146417 -0.915084
        0.778615 3.4043 1.17312
        1.39084 -1.84013 -0.216904
        -2.13103 0.479774 -0.571153
        1.14365 -0.551739 -0.0984619
        -0.440323 0.62244 -0.201731
        -1.14978 -0.714121 0.0176283
        -0.773869 -0.0438319 -1.38122
        -0.879641 0.357511 0.148781
        1.07559 1.44522 -0.526575
        -0.58401 -0.813653 0.940725
        -1.84419 0.828561 -1.08507
        -0.0403581 -0.215666 -0.330163
        -1.09603 0.754604 0.263287
        1.79206 0.303708 0.419468
        1.17095 0.334715 -1.10093
        0.180253 0.630164 0.189405
        1.84848 0.592503 0.881006
        0.253415 0.182628 -0.946447
        0.369471 -0.0109079 2.0698
        -1.61395 -2.16141 1.02342
        0.0903269 0.116444 -2.57873
        0.473686 1.88893 0.342616
        0.700973 -2.67417 -0.320758
        0.457849 0.650019 0.612819
        0.164014 -0.334091 0.828865
        -0.650869 0.0510563 1.56831
        0.507815 -0.107826 1.04254
        1.34355 -1.42849 -1.03108
        -1.69368 0.420676 -1.206
        -0.143154 0.906929 0.721401
        -1.11526 1.10644 -0.699413
        -1.03971 -0.932147 -0.588781
        -0.0896053 -0.742652 -0.614323
        -0.437045 2.47635 -0.682384
        1.30451 -0.579613 -0.227621
        3.1689 -0.453164 -1.55893
        0.846769 1.96398 -0.188052
        0.918724 1.37233 -0.545925
        -0.900502 0.953614 0.219762
        1.27815 -1.05632 -0.990477
        0.0151683 1.12867 -1.564
        -0.758845 -1.23816 0.616863
        -2.36118 0.583042 -0.403948
        -0.358175 0.730451 0.101399
        1.74716 -0.182506 1.21161
        0.403439 -0.0586549 0.282605
        0.740075 -0.0400213 -0.533591
        -0.382468 0.302409 -2.31802
        0.348304 2.43844 0.691364
        -0.74727 -1.25058 0.821014
        -1.46716 1.31631 1.01235
        1.73372 -0.235265 0.703356
        -1.38134 -0.492857 0.969459
        0.641189 -0.350612 -0.0743889
        0.20782 1.24522 -0.826588
        0.322484 1.24093 -1.73015
        -1.31948 2.71102 -0.505554
        2.96806 1.68664 2.77622
        -2.30876 0.678476 0.869142
        2.3462 -0.356462 0.36472
        0.962712 -1.59234 -0.121091
        -1.76169 0.565374 -0.200842
        -0.408223 -2.04163 -0.542594
        -0.298997 2.10318 0.575693
        1.87793 -0.937926 -1.09179
        -0.634136 0.616929 1.39276
        0.44408 0.727755 -0.755987
        1.0652 0.502655 0.332732
        -1.63576 1.15018 2.16177
        0.670746 -1.16749 0.806506
        -1.31183 0.321361 0.894372
        0.621083 0.0298537 -0.700132
        1.77093 -0.242478 -0.782585
        1.12742 0.17048 -1.28301
        -0.260214 -1.87424 0.215524
        -0.351323 -0.0710941 1.55201
        1.45189 1.64163 -1.0602
        -0.525951 2.62717 -0.086342
        0.962369 -0.908628 -0.427644
        0.46845 1.90702 1.68398
        2.0738 0.207518 0.976841
        0.316328 0.666973 -0.649514
        1.14487 -0.964518 -1.44431
        1.44888 3.59301 1.39375
        1.40301 0.536317 0.167775
        1.0377 -1.93119 0.465371
        -1.25494 -0.347122 1.90223
        1.27812 1.40795 0.21528
        -2.04522 0.176465 0.433871