<?xml version="1.0" encoding="UTF-8" standalone="no" ?>
<VTKFile byte_order="LittleEndian" type="UnstructuredGrid" version="0.1">
  <UnstructuredGrid>
    <Piece NumberOfCells="0" NumberOfPoints="500">
      <PointData>
        <DataArray Name="velocities" NumberOfComponents="3" format="ascii" type="Float32">
        -27.199 -8.00783 20.2854
        -0.0759933 -11.1508 4.80063
        -10.5793 -13.3089 -2.17507
        -8.03063 -4.09903 4.9081
        -1.46601 -10.7536 4.98085
        4.89588 1.69986 -4.98707
        -7.61141 -14.6448 -15.9007
        -5.52259 19.6269 -20.2086
        12.157 -2.47 4.20561
        11.0334 11.9267 22.9862
        2.37527 10.3504 16.9757
        0.0138204 10.3191 0.546619
        6.5721 -9.20511 -16.6228
        -18.9902 -0.57555 8.60005
        11.1222 2.3303 -3.52199
        1.16551 16.8361 -2.07999
        0.969124 -7.39681 -27.5287
        15.9389 12.9783 0.38892
        0.602741 18.6244 -14.7051
        -10.5451 -3.64559 -9.31475
        10.6127 13.768 -16.8319
        15.5448 11.0723 -17.9523
        6.08817 -12.5416 1.70353
        -10.4241 8.08809 17.3487
        -9.67956 -9.12994 6.29153
        -14.7214 -13.738 13.3418
        -26.5358 -4.26467 -0.111973
        17.9394 10.199 5.50309
        0.0492533 -3.83596 15.7947
        3.28375 -11.7694 7.84386
        -1.88942 5.35836 33.3584
        -9.88022 -11.1577 -16.1398
        -8.30316 22.8698 -12.1017
        -9.98284 -24.8347 -19.5623
        1.25915 17.897 10.0092
        -9.07854 -16.9788 23.734
        -8.99881 22.4027 11.7698
        10.6537 -9.33007 -19.4245
        -15.5408 24.9143 13.2442
        5.67091 11.886 -20.7481
        -14.1615 3.56879 7.12564
        25.9784 4.40111 -6.98062
        7.36998 13.5044 -12.6132
        15.907 1.79803 -13.2413
        -2.83444 13.8141 17.4374
        7.78181 3.39386 -30.3787
        -8.42361 -4.40806 3.98073
        -29.0238 -15.451 4.75967
        -0.353223 -14.3236 -5.73389
        6.84217 8.31765 8.08863
        -4.94163 -2.25684 -11.3359
        0.793428 -6.29365 10.7906
        6.50001 -19.9155 4.13071
        -31.2596 0.613628 -6.63138
        1.24301 -19.6465 -3.48886
        2.04791 8.33551 2.26941
        16.2238 -8.02533 21.6927
        6.74263 15.7634 7.09329
        -3.5698 23.8637 22.9778
        -3.87821 32.9592 3.3012
        23.1533 22.9034 -12.8934
        10.6672 -12.3796 3.15344
        -15.0152 -1.51915 -28.1278
        -1.3864 -0.390195 -24.8304
        -18.3318 -5.55314 23.3968
        3.5993 -3.3612 2.54523
        -0.257044 9.99964 16.5356
        -3.91626 21.3711 -13.2303
        -13.4751 14.2409 -10.557
        1.04439 -9.36516 4.996
        -11.5324 -5.27692 -0.412169
        33.621 -12.9071 -1.6153
        9.72377 5.07838 -6.84759
        -10.5972 15.9364 -5.14898
        4.12068 -1.74404 3.27521
        -6.34815 -4.08747 -13.6515
        32.4796 20.9653 4.59744
        -1.09885 9.97909 -22.1416
        15.5556 -1.66502 -0.0168189
        -7.09184 -6.02594 -28.8078
        0.372437 -1.89315 4.77323
        -5.06297 3.606 5.31254
        18.1447 32.9589 13.709
        19.3238 -4.16885 -17.4945
        -8.36399 14.5258 12.1816
        15.9326 5.98558 5.58795
        2.54785 -6.29027 -17.9563
        1.00308 11.257 23.3829
        -1.11673 16.5431 6.21287
        -10.9043 -4.76562 19.2265
        -12.6203 17.0431 4.15825
        4.75285 -0.0563236 -23.3564
        -18.5889 8.05065 2.94599
        12.4249 -19.868 12.4418
        -15.905 -0.620621 18.8466
        -9.53465 -12.4222 15.8845
        32.1345 6.11992 -4.59604
        -1.90458 -24.4359 -1.52236
        18.4681 -21.3663 15.6835
        12.2242 10.291 -21.2949
        -29.5514 -8.02706 11.5204
        8.51492 7.58948 -24.7424
        -9.01226 21.2637 -2.51636
        -8.54067 -17.3576 -13.1594
        26.6039 1.797 5.56613
        -8.79213 -12.6415 -34.1014
        7.44406 16.5677 -2.68138
        20.4197 5.73432 -3.29621
        4.70631 10.3693 11.9043
        -8.55851 14.6602 11.009
        -1.15599 -5.4333 -16.4727
        -0.851499 7.40638 23.7788
        -27.9328 -6.88929 -16.8924
        -9.3456 -20.4648 -0.95791
        7.69354 10.6536 27.0186
        -30.5445 22.8575 -10.3123
        -5.47994 -6.89442 -29.7339
        -2.31166 1.42819 -3.21679
        12.9722 16.9366 15.0148
        -4.25433 7.58631 5.92695
        14.1965 14.1435 -8.12698
        23.111 4.80217 20.3623
        3.30679 -27.672 -24.0573
        -4.48832 16.2297 -4.93754
        -9.62569 -9.48573 -13.1084
        9.0712 4.62652 13.8569
        -13.6408 -20.6751 -17.8468
        13.0493 9.00103 -9.26639
        9.83673 3.9522 -0.541571
        1.48823 -16.1158 9.89913
        8.85577 22.8566 8.24594
        17.1297 2.34528 -21.3016
        -11.7553 12.5784 8.76242
        5.9977 -9.5431 -16.2744
        -5.8302 9.47658 -11.7997
        0.232162 -12.3644 1.75983
        13.9796 3.47143 13.5251
        -10.0286 -9.69037 -11.5517
        -6.69215 -3.06138 20.839
        13.8475 -3.32455 4.34402
        -18.6343 6.69412 -2.92637
        14.5838 -21.3607 -6.97855
        -49.0979 12.9868 -16.3317
        -11.4233 -8.77951 -5.72594
        7.02119 2.39408 7.46316
        -11.0864 9.05666 10.5191
        25.3658 -6.15744 0.398218
        -4.63192 -20.789 -5.38304
        -24.2268 4.25453 -14.5973
        -7.95899 -13.0925 -3.06281
        -25.2291 3.76865 5.20751
        -3.75158 -7.70804 -4.03827
        13.7574 6.12336 -8.38282
        -6.94353 -1.99325 5.48784
        -7.01868 6.48211 -40.735
        5.22035 23.8925 -13.0557
        -8.34478 3.345 -8.51436
        -0.618284 -3.94879 6.92022
        7.62338 6.22942 5.97155
        -1.20028 3.64721 -3.81282
        10.7991 16.3888 5.44085
        15.0987 -8.73318 -17.7056
        -24.8055 -7.7726 -2.86774
        -14.5281 1.1922 7.80123
        -2.76289 -33.8141 -7.19575
        -2.63516 -10.8748 -23.0066
        -16.5379 -9.09845 11.7106
        10.6879 21.1066 -16.2711
        5.52639 18.7419 -9.46508
        2.65883 -8.44171 -6.58796
        4.03698 9.4106 13.6894
        -25.0994 -6.51501 2.18246
        3.40728 -5.76737 33.0717
        -3.75222 17.7378 13.3174
        14.1255 8.32602 -0.0712693
        17.3566 14.9001 -10.3928
        11.6803 -3.69334 -18.0318
        -12.7127 8.88401 -34.8708
        -1.12139 20.2243 -7.35403
        -22.0072 15.1688 -5.08797
        23.8205 13.0201 -2.78513
        15.9394 -12.581 -14.6279
        -30.545 -16.2625 25.0403
        -11.8814 -9.97781 3.8695
        -9.06363 23.2047 2.47623
        -23.9057 0.667797 -9.23445
        1.72847 13.1498 10.4189
        -6.06784 0.147822 -21.1971
        6.97273 14.7439 5.85361
        -11.3954 3.10595 -3.02266
        10.6745 -11.3217 10.9362
        -1.41527 6.31223 15.6187
        -13.339 7.09361 8.99975
        28.4238 -4.20254 24.5344
        13.1641 -24.4343 -5.91728
        18.7825 0.0215817 0.805423
        8.957 -13.3129 -6.57718
        9.60897 -8.0537 -2.38038
        37.0141 14.4349 -10.3764
        -2.65345 0.303167 -3.63063
        -2.99629 0.653403 32.8814
        1.39198 -15.9495 5.46896
        20.6826 7.25254 46.6697
        33.3607 1.58611 -0.248758
        -2.29146 2.62041 -24.9177
        -13.5811 -3.62243 -8.48775
        -10.9478 -16.2243 16.1973
        -6.28071 -10.6479 13.4816
        6.29335 29.7966 -9.29318
        -0.384332 27.8501 17.7704
        -18.1184 -17.1486 -9.11799
        0.812739 -8.06302 -0.177527
        1.80612 29.1811 39.5609
        -10.5668 -1.5331 4.77263
        37.2338 1.34606 17.3675
        17.6975 1.08597 -1.39895
        10.3642 6.59318 -14.9125
        7.9607 0.108178 -13.0742
        16.1412 -32.1998 -34.8128
        -6.73156 2.4111 5.51054
        8.7028 4.61936 13.0497
        -11.9806 2.41076 10.2235
        -19.2377 3.10099 31.2437
        12.9871 0.458259 9.16212
        12.1816 -38.1379 -11.3333
        -5.79836 -24.8422 22.4553
        -26.8749 -15.6429 -10.8509
        16.3833 -29.1283 -3.37437
        11.5355 17.2885 -13.2423
        -27.7871 5.5773 19.667
        4.90428 -20.699 17.6
        -9.21426 3.8939 -1.75675
        -1.47335 -16.5026 4.45544
        10.781 -3.08067 4.03212
        -2.5874 12.8206 -2.39392
        -23.0429 -20.0576 -6.15669
        -18.1556 -5.00578 3.00303
        9.09699 21.2877 -36.6254
        26.0902 8.59916 3.35056
        14.0471 14.4692 -41.4548
        -4.5756 -23.9662 12.5672
        -11.3549 -8.83591 16.2374
        4.7109 -4.09886 -5.19985
        -16.9828 7.13708 0.0816828
        14.2621 -21.7373 1.37236
        12.6622 0.306545 0.824407
        20.7349 36.6101 5.56787
        9.11847 -23.7812 -10.7435
        9.91589 -6.48242 -11.3193
        13.9114 10.6857 29.4641
        24.7078 1.3774 -5.35021
        11.2878 3.71399 5.49886
        6.09168 -14.9108 30.0163
        16.014 -7.07918 -6.29542
        33.1652 20.899 -14.0733
        2.9018 4.38154 -3.72691
        -5.42564 9.52812 -0.676564
        -14.7046 34.6586 -23.8124
        -4.8234 13.5842 -19.6411
        15.2341 -18.4139 14.8278
        -16.7927 -0.658057 -4.22372
        5.88985 -14.2249 -8.14075
        4.27444 -21.8169 0.0258951
        -13.4489 12.4046 2.13511
        19.2053 5.75672 9.00728
        37.7558 -37.9141 -13.336
        18.5159 -8.10333 6.95262
        19.4693 13.3338 5.67814
        -5.80885 17.7349 -5.97668
        -0.981796 -2.36973 34.0964
        27.6544 -2.98469 -12.8722
        14.7088 -0.641336 0.837166
        -18.5533 12.9132 12.4664
        6.94534 -3.04809 -4.3038
        -19.8449 -1.01404 20.2763
        15.4459 5.38178 10.3308
        5.99402 28.5216 5.8
        -8.50376 4.88996 -2.48626
        9.94635 2.22816 -7.85159
        -0.35613 -0.63137 24.4681
        -7.13867 6.66225 16.265
        10.0703 13.5375 -3.46139
        20.4222 -2.8268 -2.19868
        -13.256 4.20573 6.61009
        15.2719 -1.26156 6.30475
        0.754825 0.317832 -5.13439
        11.4965 -14.3273 -15.9519
        1.25686 26.7368 8.51047
        14.0239 -5.11796 -16.0462
        18.4918 21.1862 -6.97172
        -31.3716 -16.3468 9.44089
        8.48107 -1.15746 -23.303
        -2.18012 3.72811 0.486466
        17.3691 40.6147 -16.5171
        7.00472 13.0437 -4.34246
        15.8772 7.86804 -9.15823
        -15.541 6.56323 -21.9374
        -7.83094 -14.907 1.78183
        -13.8333 -23.2435 0.974122
        -10.9186 -11.252 6.45629
        -16.3177 11.3297 -15.3185
        9.59306 -3.07458 10.8022
        4.3228 9.74198 -2.79768
        -24.2952 -8.76195 -0.889382
        -13.8209 -22.3635 -5.49317
        -8.60646 -25.2778 3.93965
        -24.8265 12.9254 -19.8399
        4.41419 22.1223 10.0365
        25.8764 10.5676 2.71014
        -15.1671 -20.1457 -20.9267
        11.4472 -16.7385 12.1303
        -2.7432 11.2977 19.7584
        5.67519 -14.3797 -3.77276
        10.7165 -0.606591 -37.733
        11.4263 4.06903 1.83581
        -8.49765 -11.1788 0.643677
        1.49218 -21.9742 -4.57263
        -20.4875 11.5315 -2.54258
        -4.06742 34.9371 14.8143
        11.6753 8.99742 -15.2077
        9.36688 12.7915 3.28161
        -12.114 -1.49505 0.299654
        18.1925 0.0423863 3.17817
        -1.70335 8.06538 -4.39227
        -13.8833 19.113 -2.29183
        -6.92624 -6.05725 8.3138
        24.5548 9.3619 18.071
        -8.79606 0.120614 14.1671
        42.1495 -15.1091 3.26153
        -7.16223 37.3966 -13.6073
        -18.5083 -3.01388 23.0157
        -5.75931 -5.9916 19.7956
        0.835069 -10.1633 -2.15728
        1.97433 4.24154 8.73022
        9.81403 -0.790608 10.6233
        -17.953 10.384 -18.6806
        -0.440044 -15.2664 22.2786
        -5.0335 9.56282 -12.8265
        -12.0906 -17.4598 6.69082
        9.08784 0.635253 -14.7125
        0.202671 -4.83143 -5.36666
        10.3924 4.84059 1.24571
        7.53574 14.006 11.487
        -9.81927 -18.7751 -1.38588
        -0.772638 -5.03423 11.2445
        0.0842306 9.37488 6.47267
        16.7386 -14.1467 -12.0788
        -22.5599 -2.36106 -25.5698
        6.19228 -8.77956 26.7645
        -1.99946 -0.825754 16.3541
        -2.87313 -17.156 19.6689
        15.8367 -10.0722 6.54721
        5.84474 14.1959 -10.1326
        -1.02241 -6.05421 6.49219
        13.1465 -10.1799 31.429
        -0.415545 -16.9886 11.9303
        16.8627 -9.30204 -13.6211
        1.66079 -23.6008 4.90784
        8.00712 -0.884929 -27.6903
        6.87027 1.93558 -7.58407
        -8.83249 -14.7777 -8.10395
        21.0938 27.3328 -8.67865
        0.0286251 3.7726 16.7424
        -23.1855 -5.29129 22.959
        15.648 -9.93631 -9.59039
        6.37682 -12.6713 19.5259
        -9.6232 -10.792 -1.31939
        15.1409 15.7167 -8.38806
        -0.602679 -12.1862 8.55102
        8.81021 -7.64855 -18.0104
        -14.8549 -2.33769 11.6516
        6.83092 13.5228 19.9935
        -39.6302 -8.37942 12.4808
        -6.31578 -0.757462 -6.35773
        6.63212 -10.8013 15.2617
        1.55017 7.72526 21.366
        -23.2425 -20.227 -10.1785
        -4.12931 9.37952 -3.03389
        -31.9424 24.4078 18.4861
        1.4826 -5.65824 6.62318
        -12.4844 -16.4027 6.01384
        -19.9338 7.81525 5.24134
        -16.9275 -15.97 -7.17166
        -11.1519 -12.7822 -44.6648
        15.0522 -20.7114 6.42925
        -15.0054 -7.95096 7.35314
        -2.69104 -2.54499 -0.308223
        -18.2983 2.42209 -11.4086
        -2.2975 23.1105 17.2034
        -6.45105 -6.2703 -4.26858
        -4.78798 -4.37308 17.4184
        -16.0402 0.622185 -9.41141
        2.44125 10.3401 11.0488
        13.9313 10.6898 4.49622
        -22.675 -14.693 -8.84441
        3.92562 0.253639 2.65775
        13.1683 -19.2152 4.06966
        11.2229 -2.4401 20.2059
        -18.2408 -31.022 5.03097
        3.3898 -10.3586 8.74064
        -2.15326 -7.84022 -0.502611
        7.51249 -10.235 -7.11538
        5.00202 6.45225 13.898
        18.9945 -18.0779 -17.2391
        -5.35182 16.9751 31.8341
        -9.19476 -17.0318 6.2117
        11.2948 -37.1306 -2.70006
        7.86704 4.80833 -25.4812
        -2.22221 -0.545401 -23.0545
        14.1512 8.20993 16.8431
        -36.3298 -15.147 -15.9089
        16.3599 13.6033 -3.66552
        -18.2715 3.09386 15.7762
        3.87771 8.78559 -26.4172
        11.9509 -3.26252 11.0951
        1.50296 4.33321 13.1767
        -9.14792 -0.0795348 10.1155
        -13.28 25.8099 -5.6011
        3.98768 33.8205 -13.1023
        -11.6593 10.2521 8.4713
        4.31272 4.16683 -6.74148
        0.943437 4.48917 -0.309514
        20.4395 2.27846 12.1104
        22.4717 -21.3628 26.7212
        -3.44122 5.61367 -14.7559
        -20.4694 9.02227 -7.05615
        -8.74397 23.1671 -10.5671
        -35.578 -20.3021 13.2392
        15.8666 -1.13024 0.74305
        -3.34026 1.05835 -0.639783
        3.17396 -13.5234 0.543431
        -2.27117 1.74823 5.44876
        3.87841 -6.12966 -9.99593
        12.5835 -3.69381 13.117
        -5.88909 10.0415 -14.0038
        -28.8044 -2.88441 -23.5665
        -21.3692 -20.0397 -18.8958
        -10.3612 1.63281 12.4598
        -12.7276 7.22473 29.1114
        -9.89777 20.7738 10.8368
        0.101953 19.5752 -6.73947
        -7.35927 -9.3561 -6.90313
        3.15967 -5.4119 -5.96498
        -1.49585 10.6311 -7.09525
        10.9419 14.5146 -27.3942
        -5.27833 -5.31558 18.0821
        5.26414 1.35228 9.8732
        -11.4162 -0.759342 5.72141
        -13.9574 -5.15835 -0.343136
        -6.72759 11.6339 2.38998
        4.90553 -16.4542 17.882
        7.5422 6.02646 -4.40249
        -9.08506 -4.09382 1.25316
        12.5791 -6.2222 -0.589286
        -18.3533 29.6079 -6.24816
        -3.28744 0.781925 7.53208
        -13.3283 19.6358 0.978196
        -10.4778 10.3609 -0.928524
        2.90917 -34.1151 8.12083
        -6.17519 -4.28503 -7.98591
        17.4062 -7.55401 -5.6267
        -2.32655 -1.90908 -16.0613
        10.3608 -20.9749 5.89844
        14.2237 22.9306 -26.3653
        -8.49762 9.14106 15.4918
        -15.4321 -25.1795 -15.9524
        27.5182 -26.7519 13.3073
        6.63854 -31.5913 -16.5959
        2.27248 -3.89511 -9.1439
        4.64425 -21.056 7.62779
        6.0372 -7.78926 -13.8027
        -4.89993 -1.00517 -16.9043
        15.8476 -9.30766 -6.63895
        5.82301 -2.52087 -7.35756
        -7.9759 -28.5678 -2.03849
        -16.0761 -14.1135 28.2161
        -12.0502 -14.319 17.3221
        -26.2459 -2.22384 -3.83514
        -5.29638 8.22563 9.98708
        -3.35336 22.6584 27.6014
        0.490833 -1.02283 1.88562
        -14.7958 -1.00048 1.75686
        0.0708929 3.93024 -6.33389
        5.5765 -17.5595 4.51983
        -15.5841 -10.5174 12.3666
        -3.4663 -5.4219 -8.78629
        -16.8546 0.835439 -19.9607
        11.81 -4.98315 -8.36248
        4.34322 10.3588 -29.8152
        -12.4639 -6.09917 -34.5253
        -15.7874 -6.52678 10.1063
        -6.81367 12.2316 -12.7484
        19.3581 -16.0694 -2.47612
        22.5206 4.76714 -6.31775
        -20.0222 -4.73116 -2.9074
        18.7054 -11.7447 27.3107
        31.9331 12.4719 7.51657
        11.7811 12.0763 -23.1952
        -28.1422 26.1527 -1.79512
        -12.3377 3.20242 9.47569
        </DataArray>
        <DataArray Name="forces" NumberOfComponents="3" format="ascii" type="Float32">
        -80.9875 -489.823 332.628
        -158.352 756.807 -1462.01
        181.847 272.218 -1528.73
        -730.188 388.434 420.937
        -160.124 199.368 -363.422
        -14.0458 -464.098 1087.3
        -629.7 170.718 40.6843
        -53.395 -168.567 -182.702
        -276.522 -835.833 741.01
        -237.752 112.905 501.63
        88.6175 41.5906 -105.535
        285.294 645.24 962.827
        -11.8905 44.0835 278.385
        -810.043 -242.502 501.037
        1120.89 208.99 -559.741
        332.968 -1130.88 -374.751
        -263.143 -165.948 -429.981
        -852.104 -53.9166 2116.38
        1324.16 -384.309 -1315.09
        130.975 424.395 -24.1326
        133.965 -115.433 128.757
        338.908 299.212 -170.364
        1365.14 -1868.41 -1189.5
        301.134 64.6495 -598.515
        108.42 261.396 -600.821
        -22.1544 23.4421 30.0794
        -373.534 269.972 504.989
        116.044 74.5562 458.954
        -27.8924 -285.728 -89.8383
        586.019 280.279 -395.046
        -163.159 -541.097 -420.708
        -728.692 -1094.34 312.927
        -505.421 -319.677 37.2713
        710.868 731.295 33.7433
        739.987 793.635 -333.595
        -476.914 -139.86 254.56
        -164.868 926.384 -260.131
        1101.43 -276.26 1271.31
        -976.884 1008.84 718.975
        -1064.74 -333.354 162.748
        -675.262 66.773 280.735
        15.3912 -282.072 -164.33
        -411.372 -234.223 -223.832
        220.236 -583.122 -229.608
        30.0334 -247.205 -399.359
        912.031 -21.0114 1347.91
        251.192 56.4329 -222.031
        -127.597 -399.684 524.076
        -12.2024 200.764 -132.108
        785.039 592.358 895.949
        245.161 687.745 -530.167
        107.555 -193.286 -301.359
        720.344 -537.838 265.838
        481.66 -324.466 -645.385
        -152.92 -132.811 304.53
        -1265.9 -299.361 1859.68
        -219.029 753.692 2567.22
        737.387 -117.027 183.372
        240.997 -97.0101 -1952.09
        -46.7268 -280.921 759.238
        -841.056 -2176.26 -3377.56
        -793.898 447.112 -4.20355
        -13.084 -320.574 141.631
        1609.35 -338.619 759.7
        -281.625 113.04 -757.49
        242.834 -289.202 -211.736
        -353.396 -245.38 -999.068
        -59.9408 -1628.82 745.438
        998.751 300.433 -303.182
        619.643 -687.468 766.939
        556.952 301.21 23.5812
        -125.923 -503.46 -264.569
        20.9476 243.785 -395.121
        618.936 1369.94 1139.93
        -297.225 -9.02392 858.597
        -498.162 88.6332 -216.303
        1115.73 -612.203 838.508
        16.3373 154.769 -139.865
        153.721 -572.741 -113.938
        1291.8 -1217.99 1654.8
        -774.37 -506.275 -408.931
        -945.814 1335.72 -727.057
        -451.142 242.876 1263.31
        216.558 -161.992 -120.858
        -1048.68 -1643.73 1041.58
        -21.199 339.247 26.1724
        -282.772 2032.89 1652.56
        -15.1761 769.171 -428.336
        187.619 -48.0063 184.768
        637.902 -166.147 148.377
        -873.795 -701.748 -1661.19
        321.619 928.887 479.281
        173.296 -432.851 -453.356
        1013.15 0.716714 -1159.95
        1331.94 -119.016 -726.904
        107.894 -190.488 -198.791
        725.192 -868.548 -134.764
        -909.559 175.994 -538.002
        -182.438 35.5796 217.27
        -1130.06 -298.077 -827.513
        -210.247 321.536 348.492
        -1111.76 606.939 1474
        481.612 -460.745 -251.572
        140.939 -2186.17 -890.694
        -131.8 1235.81 -753.036
        409.759 -436.172 -580.633
        255.038 -525.552 416.47
        -453.903 -345.89 322.426
        -1055.69 2213.46 -1281.26
        854.274 -1306.97 624.193
        -216.855 -793.986 -592.918
        -209.746 491.811 -34.1305
        377.61 283.776 -193.859
        145.219 -166.854 -100.258
        -66.3803 -1042.39 -41.7664
        -131.09 454.08 -509.206
        -555.191 839.243 -46.4155
        -1028.44 286.511 -1055.32
        -447.704 628.621 573.28
        591.53 -431.917 -935.679
        -108.519 39.7462 -276.108
        -25.2713 435.954 60.3308
        97.1785 -176.631 -1014.48
        346.81 -816.896 125.5
        487.13 -535.674 391.514
        5.77513 -1099.4 2256.31
        2553.11 -3.5577 -2107.74
        -149.353 208.66 93.0837
        -780.456 -112.007 131.913
        53.6563 106.733 -126.944
        -58.7634 20.6039 -105.858
        593.378 225.537 1811.73
        -245.474 189.061 -208.936
        700.569 -751.219 307.117
        67.6589 -39.3248 -61.1535
        -253.861 248.978 179.368
        771.479 383.795 -445.583
        -523.695 788.751 77.7693
        317.619 434 -586.617
        -871.112 -1120.3 346.416
        323.8 165.868 616.193
        -743.958 1211.36 447.002
        -100.52 -11.6547 846.267
        -118.76 -102.705 48.0456
        255.709 83.3927 -119.539
        -284.161 -288.201 -1384.4
        -754.64 1003.81 -867.177
        -1245.97 -1224.38 1789.49
        -53.2561 -68.4786 -268.026
        -85.2024 -66.6046 -388.55
        -480.625 267.357 -103.759
        1254.27 997.215 -2127.84
        175.415 -589.677 734.124
        -739.888 454.67 -376.395
        -625.776 -874.821 605.642
        1363.17 -111.162 -1486.23
        -260.853 165.013 111.943
        -676.258 470.776 414.469
        431.214 -382.058 162.398
        -526.896 -1703.26 1344.2
        -160.316 248.244 13.0242
        -1796.82 1183.96 2037.88
        297.044 86.2207 -425.151
        -101.514 -140.304 -448.981
        925.218 -147.381 644.101
        -411.844 622.446 0.541673
        -216.641 437.206 -605.848
        580.721 0.060622 577.44
        -211.442 -10.9548 -263.108
        -123.984 -423.608 428.42
        -92.6022 59.0818 -397.381
        53.3835 -95.3179 67.5441
        -242.788 -745.237 564.348
        712.557 829.115 -2066.71
        444.178 -35.2207 64.0532
        -80.4375 664.344 -920.767
        -273.853 -161.38 434.568
        99.821 588.715 348.759
        112.929 2274.55 -36.0821
        254.595 10.0415 119.071
        605.242 -336.432 1114.38
        119.844 375.338 140.012
        -766.1 397.631 -5.69992
        -315.397 834.313 462.162
        -1328.82 -1835.82 664.19
        302.142 -806.324 247.616
        -287.498 -1172.06 -796.624
        550.976 -382.85 -1118.62
        667.621 -307.069 585.473
        1201.22 777.389 508.703
        308.317 -1579.06 746.314
        -348.36 -570.185 74.5125
        744.762 -1119.2 -1403.43
        -1438.96 1120.55 1519.42
        624.212 -344.845 830.316
        19.3974 760.405 38.5277
        13.5622 -10.0965 -38.1945
        -285.273 -99.7866 162.407
        -575.83 346.752 865.221
        -126.842 1894.99 1963.98
        778.842 -1970.55 666.141
        -799.494 -140.108 -179.325
        693.268 394.812 638.553
        946.435 -394.612 -1046.21
        -612.063 598.441 -334.162
        -160.822 -256.004 35.2512
        -966.307 1464.66 -1630.67
        -1303.87 489.769 -1085.85
        -526.22 -913.021 -973.337
        44.4486 -193.794 -28.3711
        33.3601 -67.6276 -355.416
        -349.676 1186.11 -512.361
        -370.777 648.021 -494.795
        196.808 303.434 766.735
        89.9708 -161.347 -427.193
        -73.1041 599.822 -566.29
        352.747 -558.534 -109.174
        -201.866 -1771.7 -1662.88
        -895.081 1289.99 -623.439
        -375.463 -402.498 -716.422
        114.639 88.2489 -427.431
        694.783 80.4512 109.855
        848.902 -536.645 127.141
        -22.6406 1176.58 -810.023
        186.309 29.411 -189.709
        409.607 617.89 -457.337
        1177.11 -254.293 -673.143
        930.054 339.392 514.21
        309.829 -77.3174 310.927
        -283.943 1388.88 -1347.57
        385.546 -283.878 -4.84562
        -2086.99 -59.0775 205.34
        -1547.14 -199.451 988.968
        -1312.67 -1472.15 736.341
        236.905 79.1297 412.167
        230.554 117.273 82.3638
        22.5093 -45.8962 -127.332
        -1017.07 778.4 764.372
        99.5588 -406.569 -669.746
        169.815 -87.7263 900.457
        -907.944 245.654 551.677
        826.117 -86.3371 245.661
        -77.1414 29.8787 50.4747
        -189.532 317.141 254.1
        412.888 -864.94 986.395
        330.138 2119.96 -2037.13
        1584.67 94.0841 -399.906
        -81.6577 328.265 876.603
        -839.124 -2299.7 1447.2
        -179.576 -25.8647 -213.427
        -87.1006 163.307 189.143
        433.745 136.132 -981.03
        801.001 -18.9103 1404.19
        1220.21 -1466.09 -168.929
        134.762 61.9129 23.6663
        215.361 -172.343 -935.826
        22.511 -353.836 -695.75
        -582.199 -301.655 -201.83
        288.791 -619.29 -509.317
        12.2163 227.325 86.5285
        -923.666 -1415.27 -459.921
        -108.803 240.486 -19.9828
        633.635 256.233 834.051
        -198.846 -276.089 -1236
        57.4866 -27.0582 391.316
        -1417.53 657.702 -306.385
        -663.912 -529.304 -127.312
        782.493 1475.01 109.89
        337.882 657.24 1398.44
        610.768 -701.602 308.269
        364.41 -244.164 1109.62
        393.977 1339.38 -1260.77
        694.141 160.276 122.919
        -127.789 685.244 668.963
        -1793.49 1602.7 -898.622
        -105.226 -1188.76 -486.059
        -680.02 468.003 277.797
        343.124 905.813 1143.55
        -1277.03 -137.103 1753.78
        264.534 -1122.24 -1363.77
        575.617 -233.595 -1625.89
        -214.309 753.622 -758.279
        -1527.75 284.341 608.686
        375.669 -1267.27 -49.1115
        252.623 106.289 -83.9814
        48.5525 -48.9137 -806.363
        1167.83 -451.793 899.42
        -791.438 -582.905 701.48
        -1046.24 585.798 -379.533
        -166.432 -515.402 -1275.39
        1081.87 146.695 -1275.94
        -115.958 -526.256 -1008.05
        1037.72 -1652.35 -224.831
        741.365 765.869 -926.718
        319.795 -261.903 -173.452
        53.1481 -195.622 -210.395
        254.368 -191.269 -39.1897
        -232.416 1056.3 -1548.34
        548.125 386.482 1611.63
        -202.054 -788.108 -389.114
        -274.95 573.041 -716.31
        -213.563 -29.37 -90.1407
        -414.759 -380.067 -27.4608
        -228.688 713.644 -952.968
        408.393 21.245 1297.77
        138.68 252.946 753.98
        1364.92 442.55 299.082
        740.237 1466.91 525.399
        571.748 632.85 -600.131
        677.806 652.711 1706.37
        -871.211 251.868 -83.164
        -683.232 -47.6208 -458.59
        159.642 1106.35 243.917
        -2488.41 -1838.77 1900.31
        -723.708 621.291 1243.36
        -245.042 -330.834 -117.518
        215.99 -85.4216 -824.978
        1065.28 355.586 -554.248
        315.323 173.655 446.735
        -16.6696 1148.17 1454.42
        -124.131 107.469 7.47922
        -1180.76 154.092 77.5513
        -209.66 683.1 891.033
        -2349.75 -713.461 -1365.7
        483.263 684.437 -1585.26
        -471.51 -1702.63 390.889
        60.3146 556.361 -789.837
        636.368 150.644 552.601
        -97.6992 110.552 -14.4057
        817.038 851.285 -461.333
        803.095 -6.78624 -736.034
        1005.28 -1616.21 -742.476
        -23.7272 234.394 345.369
        707.53 -39.446 -487.636
        1232.57 1611.02 -2072.7
        528.674 1783.8 3132.83
        152.427 -238.787 -365.087
        -636.017 -830.848 1206.64
        332.752 -869.802 -468.248
        753.864 -1517.17 -662.085
        1003.72 -1388.7 -1726.13
        -356.268 -294.438 -317.775
        -2454.18 -254.575 -476.167
        -489.919 81.3385 387.999
        -189.77 1236.88 997.341
        963.861 -62.3217 2150.85
        -768.397 1167.57 709.18
        -121.735 116.793 -125.111
        259.92 -341.629 -757.806
        -705.31 384.995 -109.604
        -281.71 612.471 58.0342
        -39.4417 -345.794 395.66
        67.1552 -32.0265 23.255
        36.5507 425.896 -976.164
        653.475 230.218 108.057
        174.421 -622.332 9.30885
        -828.798 -65.7749 -552.89
        -105.373 -203.308 1.82759
        -464.953 999.776 1078.02
        2088.89 1027.06 885.406
        -216.709 1339.89 684.628
        -1.38879 137.077 42.6557
        -273.697 -240.261 -351.294
        -1512.64 184.818 -2134.66
        839.369 756.347 259.877
        -778.986 425.123 493.259
        754.719 -1345.72 -33.7621
        -1253.16 -119.452 668.428
        -3.82896 -302.188 -136.915
        -13.3981 -648.463 166.568
        291.562 677.988 185.503
        347.801 -83.9902 -1520.02
        17.2501 334.2 572.571
        288.255 -12.8052 -1144.02
        -341.428 -109.335 248.177
        -2075.35 357.19 2633.2
        -241.315 -762.413 125.585
        -75.7202 -526.703 -791.88
        -37.5873 1084.43 -377.604
        86.1257 162.385 -317.085
        1264.56 183.867 -173.334
        -280.965 458.231 -285.25
        -328.072 280.006 263.54
        21.3148 -352.955 -31.8144
        116.861 -508.893 1007.68
        -206.491 9.43352 -245.876
        86.202 -34.1021 -183.712
        619.559 121.786 -304.719