<?xml version="1.0" encoding="UTF-8" standalone="no" ?>
<VTKFile byte_order="LittleEndian" type="UnstructuredGrid" version="0.1">
  <UnstructuredGrid>
    <Piece NumberOfCells="0" NumberOfPoints="210">
      <PointData>
        <DataArray Name="velocities" NumberOfComponents="3" format="ascii" type="Float32">
        0 0 0
        0 0 0
        0 0 0
        0 0 0
        0 0 0
        0 0 0
        0 0 0
        0 0 0
        0 0 0
        0 0 0
        0 0 0
        0 0 0
        0 0 0
        0 0 0
        0 0 0
        0 0 0
        0 0 0
        0 0 0
        0 0 0
        0 0 0
        0 0 0
        0 0 0
        0 0 0
        0 0 0
        0 0 0
        0 0 0
        0 0 0
        0 0 0
        0 0 0
        0 0 0
        0 0 0
        0 0 0
        0 0 0
        0 0 0
        0 0 0
        0 0 0
        0 0 0
        0 0 0
        0 0 0
        0 0 0
        0 0 0
        0 0 0
        0 0 0
        0 0 0
        0 0 0
        0 0 0
        0 0 0
        0 0 0
        0 0 0
        0 0 0
        0 0 0
        0 0 0
        0 0 0
        0 0 0
        0 0 0
        0 0 0
        0 0 0
        0 0 0
        0 0 0
        0 0 0
        0 0 0
        0 0 0
        0 0 0
        0 0 0
        0 0 0
        0 0 0
        0 0 0
        0 0 0
        0 0 0
        0 0 0
        0 0 0
        0 0 0
        0 0 0
        0 0 0
        0 0 0
        0 0 0
        0 0 0
        0 0 0
        0 0 0
        0 0 0
        0 0 0
        0 0 0
        0 0 0
        0 0 0
        0 0 0
        0 0 0
        0 0 0
        0 0 0
        0 0 0
        0 0 0
        0 0 0
        0 0 0
        0 0 0
        0 0 0
        0 0 0
        0 0 0
        0 0 0
        0 0 0
        0 0 0
        0 0 0
        0 0 0
        0 0 0
        0 0 0
        0 0 0
        0 0 0
        0 0 0
        0 0 0
        0 0 0
        0 0 0
        0 0 0
        0 0 0
        0 0 0
        0 0 0
        0 0 0
        0 0 0
        0 0 0
        0 0 0
        0 0 0
        0 0 0
        0 0 0
        0 0 0
        0 0 0
        0 0 0
        0 0 0
        0 0 0
        0 0 0
        0 0 0
        0 0 0
        0 0 0
        0 0 0
        0 0 0
        0 0 0
        0 0 0
        0 0 0
        0 0 0
        0 0 0
        0 0 0
        0 0 0
        0 0 0
        0 0 0
        0 0 0
        0 0 0
        0 0 0
        0 0 0
        0 0 0
        0 0 0
        0 0 0
        0 0 0
        0 0 0
        0 0 0
        0 0 0
        0 0 0
        0 0 0
        0 0 0
        0 0 0
        0 0 0
        0 0 0
        0 0 0
        0 0 0
        0 0 0
        0 0 0
        0 0 0
        0 0 0
        0 0 0
        0 0 0
        0 0 0
        0 0 0
        0 0 0
        0 0 0
        0 0 0
        0 0 0
        0 0 0
        0 0 0
        0 0 0
        0 0 0
        0 0 0
        0 0 0
        0 0 0
        0 0 0
        0 0 0
        0 0 0
        0 0 0
        0 0 0
        0 0 0
        0 0 0
        0 0 0
        0 0 0
        0 0 0
        0 0 0
        0 0 0
        0 0 0
        0 0 0
        0 0 0
        0 0 0
        0 0 0
        0 0 0
        0 0 0
        0 0 0
        0 0 0
        0 0 0
        0 0 0
        0 0 0
        0 0 0
        0 0 0
        0 0 0
        0 0 0
        0 0 0
        0 0 0
        0 0 0
        0 0 0
        </DataArray>
        <DataArray Name="forces" NumberOfComponents="3" format="ascii" type="Float32">
        0 0 0
        0 0 0
        0 0 0
        0 0 0
        0 0 0
        0 0 0
        0 0 0
        0 0 0
        0 0 0
        0 0 0
        0 0 0
        0 0 0
        0 0 0
        0 0 0
        0 0 0
        0 0 0
        0 0 0
        0 0 0
        0 0 0
        0 0 0
        0 0 0
        0 0 0
        0 0 0
        0 0 0
        0 0 0
        0 0 0
        0 0 0
        0 0 0
        0 0 0
        0 0 0
        0 0 0
        0 0 0
        0 0 0
        0 0 0
        0 0 0
        0 0 0
        0 0 0
        0 0 0
        0 0 0
        0 0 0
        0 0 0
        0 0 0
        0 0 0
        0 0 0
        0 0 0
        0 0 0
        0 0 0
        0 0 0
        0 0 0
        0 0 0
        0 0 0
        0 0 0
        0 0 0
        0 0 0
        0 0 0
        0 0 0
        0 0 0
        0 0 0
        0 0 0
        0 0 0
        0 0 0
        0 0 0
        0 0 0
        0 0 0
        0 0 0
        0 0 0
        0 0 0
        0 0 0
        0 0 0
        0 0 0
        0 0 0
        0 0 0
        0 0 0
        0 0 0
        0 0 0
        0 0 0
        0 0 0
        0 0 0
        0 0 0
        0 0 0
        0 0 0
        0 0 0
        0 0 0
        0 0 0
        0 0 0
        0 0 0
        0 0 0
        0 0 0
        0 0 0
        0 0 0
        0 0 0
        0 0 0
        0 0 0
        0 0 0
        0 0 0
        0 0 0
        0 0 0
        0 0 0
        0 0 0
        0 0 0
        0 0 0
        0 0 0
        0 0 0
        0 0 0
        0 0 0
        0 0 0
        0 0 0
        0 0 0
        0 0 0
        0 0 0
        0 0 0
        0 0 0
        0 0 0
        0 0 0
        0 0 0
        0 0 0
        0 0 0
        0 0 0
        0 0 0
        0 0 0
        0 0 0
        0 0 0
        0 0 0
        0 0 0
        0 0 0
        0 0 0
        0 0 0
        0 0 0
        0 0 0
        0 0 0
        0 0 0
        0 0 0
        0 0 0
        0 0 0
        0 0 0
        0 0 0
        0 0 0
        0 0 0
        0 0 0
        0 0 0
        0 0 0
        0 0 0
        0 0 0
        0 0 0
        0 0 0
        0 0 0
        0 0 0
        0 0 0
        0 0 0
        0 0 0
        0 0 0
        0 0 0
        0 0 0
        0 0 0
        0 0 0
        0 0 0
        0 0 0
        0 0 0
        0 0 0
        0 0 0
        0 0 0
        0 0 0
        0 0 0
        0 0 0
        0 0 0
        0 0 0
        0 0 0
        0 0 0
        0 0 0
        0 0 0
        0 0 0
        0 0 0
        0 0 0
        0 0 0
        0 0 0
        0 0 0
        0 0 0
        0 0 0
        0 0 0
        0 0 0
        0 0 0
        0 0 0
        0 0 0
        0 0 0
        0 0 0
        0 0 0
        0 0 0
        0 0 0
        0 0 0
        0 0 0
        0 0 0
        0 0 0
        0 0 0
        0 0 0
        0 0 0
        0 0 0
        0 0 0
        0 0 0
        0 0 0
        0 0 0
        0 0 0
        0 0 0
        0 0 0
        0 0 0
        0 0 0
        0 0 0
        0 0 0
        0 0 0
        0 0 0
        0 0 0
        </DataArray>
        <DataArray Name="typeIds" NumberOfComponents="1" format="ascii" type="Int32">
        0
        0
        0
        0
        0
        0
        0
        0
        0
        0
        0
        0
        0
        0
        0
        0
        0
        0
        0
        0
        0
        0
        0
        0
        0
        0
        0
        0
        0
        0
        0
        0
        0
        0
        0
        0
        0
        0
        0
        0
        0
        0
        0
        0
        0
        0
        0
        0
        0
        0
        0
        0
        0
        0
        0
        0
        0
        0
        0
        0
        0
        0
        0
        0
        0
        0
        0
        0
        0
        0
        0
        0
        0
        0
        0
        0
        0
        0
        0
        0
        0
        0
        0
        0
        0
        0
        0
        0
        0
        0
        0
        0
        0
        0
        0
        0
        0
        0
        0
        0
        0
        0
        0
        0
        0
        0
        0
        0
        0
        0
        0
        0
        0
        0
        0
        0
        0
        0
        0
        0
        0
        0
        0
        0
        0
        0
        0
        0
        0
        0
        0
        0
        0
        0
        0
        0
        0
        0
        0
        0
        0
        0
        0
        0
        0
        0
        0
        0
        0
        0
        0
        0
        0
        0
        0
        0
        0
        0
        0
        0
        0
        0
        0
        0
        0
        0
        0
        0
        0
        0
        0
        0
        0
        0
        0
        0
        0
        0
        0
        0
        0
        0
        0
        0
        0
        0
        0
        0
        0
        0
        0
        0
        0
        0
        0
        0
        0
        0
        0
        0
        0
        0
        0
        0
        0
        0
        0
        0
        0
        0
        </DataArray>
        <DataArray Name="ids" NumberOfComponents="1" format="ascii" type="Int32">
        0
        156
        130
        78
        26
        104
        52
        79
        157
        1
        53
        158
        27
        105
        2
        54
        80
        28
        131
        106
        3
        29
        55
        4
        30
        132
        5
        159
        31
        56
        160
        133
        6
        107
        32
        134
        108
        7
        81
        109
        161
        8
        110
        135
        82
        111
        57
        136
        83
        112
        9
        84
        33
        58
        10
        85
        34
        86
        162
        113
        163
        137
        11
        164
        114
        59
        165
        12
        115
        60
        87
        166
        116
        35
        88
        61
        167
        89
        138
        62
        117
        90
        168
        13
        36
        91
        63
        139
        92
        64
        169
        93
        37
        14
        140
        170
        118
        38
        141
        65
        15
        39
        171
        94
        66
        172
        119
        16
        173
        95
        40
        120
        142
        96
        121
        67
        174
        41
        68
        122
        97
        17
        175
        69
        18
        42
        176
        143
        98
        177
        70
        144
        123
        19
        99
        71
        178
        20
        43
        179
        100
        21
        44
        124
        145
        22
        101
        180
        125
        102
        23
        45
        103
        181
        46
        24
        146
        72
        47
        126
        147
        25
        73
        127
        48
        208
        148
        74
        49
        209
        50
        149
        75
        128
        51
        150
        76
        129
        151
        77
        152
        153
        154
        155
        182
        183
        184
        185
        186
        187
        188
        189
        190
        191
        192
        193
        194
        195
        196
        197
        198
        199
        200
        201
        202
        203
        204
        205
        206
        207
        </DataArray>
      </PointData>
      <CellData/>
      <Points>
        <DataArray Name="positions" NumberOfComponents="3" format="ascii" type="Float32">
        1 1 1
        2 2.1547 5.08248
        1 2.73205 4.26599
        4.5 3.59808 2.63299
        2.5 5.33013 1
        5.5 3.02073 3.44949
        3.5 4.75278 1.8165
        5.5 3.59808 2.63299
        3 2.1547 5.08248
        2 1 1
        4.5 4.75278 1.8165
        4 2.1547 5.08248
        3.5 5.33013 1
        1 3.88675 3.44949
        3 1 1
        5.5 4.75278 1.8165
        1 4.4641 2.63299
        4.5 5.33013 1
        2 2.73205 4.26599
        2 3.88675 3.44949
        4 1 1
        5.5 5.33013 1
        1 5.6188 1.8165
        5 1 1
        1.5 1.28868 1.8165
        3 2.73205 4.26599
        1.5 1.86603 1
        5 2.1547 5.08248
        2.5 1.28868 1.8165
        2 5.6188 1.8165
        1.5 3.02073 5.08248
        4 2.73205 4.26599
        2.5 1.86603 1
        3 3.88675 3.44949
        3.5 1.28868 1.8165
        5 2.73205 4.26599
        4 3.88675 3.44949
        3.5 1.86603 1
        2 4.4641 2.63299
        5 3.88675 3.44949
        2.5 3.02073 5.08248
        4.5 1.86603 1
        1.5 4.75278 3.44949
        1.5 3.59808 4.26599
        3 4.4641 2.63299
        2.5 4.75278 3.44949
        3 5.6188 1.8165
        2.5 3.59808 4.26599
        4 4.4641 2.63299
        3.5 4.75278 3.44949
        5.5 1.86603 1
        5 4.4641 2.63299
        4.5 1.28868 1.8165
        4 5.6188 1.8165
        1 2.73205 1
        1.5 5.33013 2.63299
        5.5 1.28868 1.8165
        2.5 5.33013 2.63299
        3.5 3.02073 5.08248
        4.5 4.75278 3.44949
        4.5 3.02073 5.08248
        3.5 3.59808 4.26599
        2 2.73205 1
        5.5 3.02073 5.08248
        5.5 4.75278 3.44949
        5 5.6188 1.8165
        1 3.88675 5.08248
        3 2.73205 1
        1 5.6188 3.44949
        1 1 2.63299
        3.5 5.33013 2.63299
        2 3.88675 5.08248
        2 5.6188 3.44949
        1 2.1547 1.8165
        4.5 5.33013 2.63299
        2 1 2.63299
        3 3.88675 5.08248
        5.5 5.33013 2.63299
        4.5 3.59808 4.26599
        3 1 2.63299
        3 5.6188 3.44949
        1.5 1.28868 3.44949
        4 3.88675 5.08248
        4 2.73205 1
        2 2.1547 1.8165
        2.5 1.28868 3.44949
        4 1 2.63299
        5.5 3.59808 4.26599
        3.5 1.28868 3.44949
        5 1 2.63299
        5 3.88675 5.08248
        4.5 1.28868 3.44949
        3 2.1547 1.8165
        5 2.73205 1
        1 4.4641 4.26599
        1.5 4.75278 5.08248
        4 5.6188 3.44949
        4 2.1547 1.8165
        2 4.4641 4.26599
        1.5 1.86603 2.63299
        1.5 3.59808 1
        5 2.1547 1.8165
        2.5 4.75278 5.08248
        5.5 1.28868 3.44949
        2.5 1.86603 2.63299
        3.5 4.75278 5.08248
        5 5.6188 3.44949
        2.5 3.59808 1
        4.5 4.75278 5.08248
        1 2.1547 3.44949
        1.5 3.02073 1.8165
        1 1 4.26599
        3 4.4641 4.26599
        2 2.1547 3.44949
        2 1 4.26599
        3.5 1.86603 2.63299
        5.5 4.75278 5.08248
        2.5 3.02073 1.8165
        4.5 1.86603 2.63299
        3 1 4.26599
        3 2.1547 3.44949
        3.5 3.59808 1
        1 5.6188 5.08248
        5.5 1.86603 2.63299
        4.5 3.59808 1
        3.5 3.02073 1.8165
        2 5.6188 5.08248
        4 4.4641 4.26599
        4 2.1547 3.44949
        3 5.6188 5.08248
        1 2.73205 2.63299
        5 4.4641 4.26599
        4 1 4.26599
        5.5 3.59808 1
        5 2.1547 3.44949
        2 2.73205 2.63299
        4 5.6188 5.08248
        1 4.4641 1
        4.5 3.02073 1.8165
        5 5.6188 5.08248
        1.5 3.02073 3.44949
        2 4.4641 1
        5.5 3.02073 1.8165
        5 1 4.26599
        1.5 5.33013 4.26599
        3 4.4641 1
        2.5 3.02073 3.44949
        1 1 5.89898
        1.5 1.86603 4.26599
        3.5 3.02073 3.44949
        4 4.4641 1
        1 3.88675 1.8165
        4.5 3.02073 3.44949
        2 1 5.89898
        2 3.88675 1.8165
        5 4.4641 1
        2.5 5.33013 4.26599
        3 2.73205 2.63299
        3 3.88675 1.8165
        2.5 1.86603 4.26599
        3.5 5.33013 4.26599
        1.5 5.33013 1
        4 2.73205 2.63299
        3.5 1.86603 4.26599
        4 3.88675 1.8165
        4.5 5.33013 5.89898
        4.5 5.33013 4.26599
        5 2.73205 2.63299
        5 3.88675 1.8165
        5.5 5.33013 5.89898
        1.5 4.75278 1.8165
        5.5 5.33013 4.26599
        1.5 3.59808 2.63299
        4.5 1.86603 4.26599
        2.5 4.75278 1.8165
        1.5 1.28868 5.08248
        2.5 3.59808 2.63299
        5.5 1.86603 4.26599
        2.5 1.28868 5.08248
        3.5 3.59808 2.63299
        3.5 1.28868 5.08248
        4.5 1.28868 5.08248
        5.5 1.28868 5.08248
        1 2.1547 5.08248
        3 1 5.89898
        4 1 5.89898
        5 1 5.89898
        1.5 1.86603 5.89898
        2.5 1.86603 5.89898
        3.5 1.86603 5.89898
        4.5 1.86603 5.89898
        5.5 1.86603 5.89898
        1 2.73205 5.89898
        2 2.73205 5.89898
        3 2.73205 5.89898
        4 2.73205 5.89898
        5 2.73205 5.89898
        1.5 3.59808 5.89898
        2.5 3.59808 5.89898
        3.5 3.59808 5.89898
        4.5 3.59808 5.89898
        5.5 3.59808 5.89898
        1 4.4641 5.89898
        2 4.4641 5.89898
        3 4.4641 5.89898
        4 4.4641 5.89898
        5 4.4641 5.89898
        1.5 5.33013 5.89898
        2.5 5.33013 5.89898
        3.5 5.33013 5.89898
        </DataArray>
      </Points>
      <Cells>
        <DataArray Name="types" NumberOfComponents="0" format="ascii" type="Float32"/>
      </Cells>
    </Piece>
  </UnstructuredGrid>
</VTKFile>
